 CRYSTAL
 PRIMVEC
    3.359117028    0.000000000    0.000000000
    0.000000000    3.359117028    0.000000000
    0.000000000    0.000000000    3.359117028
 PRIMCOORD
           2           1
Li        0.000000000    0.000000000    0.000000000
Li        1.679558514    1.679558514    1.679558514
BEGIN_BLOCK_DATAGRID_3D
3D_PWSCF
DATAGRID_3D_UNKNOWN
          46          46          46
  0.000000  0.000000  0.000000
  3.359117  0.000000  0.000000
  0.000000  3.359117  0.000000
  0.000000  0.000000  3.359117
  0.45475E+01  0.39753E+01  0.26602E+01  0.13880E+01  0.61383E+00  0.27342E+00
  0.13319E+00  0.67816E-01  0.36269E-01  0.20813E-01  0.13571E-01  0.10284E-01
  0.89163E-02  0.83564E-02  0.81652E-02  0.81313E-02  0.82256E-02  0.84003E-02
  0.86088E-02  0.87572E-02  0.88205E-02  0.88045E-02  0.87741E-02  0.87741E-02
  0.88045E-02  0.88205E-02  0.87572E-02  0.86088E-02  0.84003E-02  0.82256E-02
  0.81313E-02  0.81652E-02  0.83564E-02  0.89163E-02  0.10284E-01  0.13571E-01
  0.20813E-01  0.36269E-01  0.67816E-01  0.13319E+00  0.27342E+00  0.61383E+00
  0.13880E+01  0.26602E+01  0.39753E+01  0.45475E+01  0.39753E+01  0.34756E+01
  0.23297E+01  0.12250E+01  0.55343E+00  0.25375E+00  0.12579E+00  0.64752E-01
  0.34958E-01  0.20261E-01  0.13342E-01  0.10189E-01  0.88776E-02  0.83435E-02
  0.81613E-02  0.81251E-02  0.82192E-02  0.83949E-02  0.86014E-02  0.87483E-02
  0.88057E-02  0.87861E-02  0.87535E-02  0.87535E-02  0.87861E-02  0.88057E-02
  0.87483E-02  0.86014E-02  0.83949E-02  0.82192E-02  0.81251E-02  0.81613E-02
  0.83435E-02  0.88776E-02  0.10189E-01  0.13342E-01  0.20261E-01  0.34958E-01
  0.64752E-01  0.12579E+00  0.25375E+00  0.55343E+00  0.12250E+01  0.23297E+01
  0.34756E+01  0.39753E+01  0.26602E+01  0.23297E+01  0.15760E+01  0.85515E+00
  0.41438E+00  0.20558E+00  0.10656E+00  0.56608E-01  0.31390E-01  0.18739E-01
  0.12704E-01  0.99427E-02  0.87833E-02  0.83088E-02  0.81474E-02  0.81202E-02
  0.82183E-02  0.83921E-02  0.85869E-02  0.87275E-02  0.87797E-02  0.87610E-02
  0.87280E-02  0.87280E-02  0.87610E-02  0.87797E-02  0.87275E-02  0.85869E-02
  0.83921E-02  0.82183E-02  0.81202E-02  0.81474E-02  0.83088E-02  0.87833E-02
  0.99427E-02  0.12704E-01  0.18739E-01  0.31390E-01  0.56608E-01  0.10656E+00
  0.20558E+00  0.41438E+00  0.85515E+00  0.15760E+01  0.23297E+01  0.26602E+01
  0.13880E+01  0.12250E+01  0.85515E+00  0.50075E+00  0.27341E+00  0.14981E+00
  0.82242E-01  0.45852E-01  0.26517E-01  0.16628E-01  0.11807E-01  0.95977E-02
  0.86457E-02  0.82579E-02  0.81200E-02  0.81136E-02  0.82178E-02  0.83931E-02
  0.85786E-02  0.87081E-02  0.87518E-02  0.87348E-02  0.87064E-02  0.87064E-02
  0.87348E-02  0.87518E-02  0.87081E-02  0.85786E-02  0.83931E-02  0.82178E-02
  0.81136E-02  0.81200E-02  0.82579E-02  0.86457E-02  0.95977E-02  0.11807E-01
  0.16628E-01  0.26517E-01  0.45852E-01  0.82242E-01  0.14981E+00  0.27341E+00
  0.50075E+00  0.85515E+00  0.12250E+01  0.13880E+01  0.61383E+00  0.55343E+00
  0.41438E+00  0.27341E+00  0.16929E+00  0.10100E+00  0.59162E-01  0.34979E-01
  0.21449E-01  0.14383E-01  0.10837E-01  0.92070E-02  0.84805E-02  0.82034E-02
  0.81005E-02  0.81287E-02  0.82400E-02  0.84119E-02  0.85806E-02  0.86956E-02
  0.87325E-02  0.87156E-02  0.86899E-02  0.86899E-02  0.87156E-02  0.87325E-02
  0.86956E-02  0.85806E-02  0.84119E-02  0.82400E-02  0.81287E-02  0.81005E-02
  0.82034E-02  0.84805E-02  0.92070E-02  0.10837E-01  0.14383E-01  0.21449E-01
  0.34979E-01  0.59162E-01  0.10100E+00  0.16929E+00  0.27341E+00  0.41438E+00
  0.55343E+00  0.61383E+00  0.27342E+00  0.25375E+00  0.20558E+00  0.14981E+00
  0.10100E+00  0.64752E-01  0.40690E-01  0.25683E-01  0.17026E-01  0.12340E-01
  0.99495E-02  0.88368E-02  0.83295E-02  0.81462E-02  0.80878E-02  0.81523E-02
  0.82757E-02  0.84473E-02  0.86004E-02  0.87024E-02  0.87363E-02  0.87262E-02
  0.87083E-02  0.87083E-02  0.87262E-02  0.87363E-02  0.87024E-02  0.86004E-02
  0.84473E-02  0.82757E-02  0.81523E-02  0.80878E-02  0.81462E-02  0.83295E-02
  0.88368E-02  0.99495E-02  0.12340E-01  0.17026E-01  0.25683E-01  0.40690E-01
  0.64752E-01  0.10100E+00  0.14981E+00  0.20558E+00  0.25375E+00  0.27342E+00
  0.13319E+00  0.12579E+00  0.10656E+00  0.82242E-01  0.59162E-01  0.40690E-01
  0.27406E-01  0.18754E-01  0.13611E-01  0.10710E-01  0.92386E-02  0.85203E-02
  0.82107E-02  0.80993E-02  0.80979E-02  0.81902E-02  0.83371E-02  0.85043E-02
  0.86378E-02  0.87230E-02  0.87557E-02  0.87590E-02  0.87534E-02  0.87534E-02
  0.87590E-02  0.87557E-02  0.87230E-02  0.86378E-02  0.85043E-02  0.83371E-02
  0.81902E-02  0.80979E-02  0.80993E-02  0.82107E-02  0.85203E-02  0.92386E-02
  0.10710E-01  0.13611E-01  0.18754E-01  0.27406E-01  0.40690E-01  0.59162E-01
  0.82242E-01  0.10656E+00  0.12579E+00  0.13319E+00  0.67816E-01  0.64752E-01
  0.56608E-01  0.45852E-01  0.34979E-01  0.25683E-01  0.18754E-01  0.14112E-01
  0.11213E-01  0.95796E-02  0.87196E-02  0.82863E-02  0.81181E-02  0.80686E-02
  0.81329E-02  0.82540E-02  0.84243E-02  0.85726E-02  0.86822E-02  0.87469E-02
  0.87820E-02  0.87970E-02  0.87980E-02  0.87980E-02  0.87970E-02  0.87820E-02
  0.87469E-02  0.86822E-02  0.85726E-02  0.84243E-02  0.82540E-02  0.81329E-02
  0.80686E-02  0.81181E-02  0.82863E-02  0.87196E-02  0.95796E-02  0.11213E-01
  0.14112E-01  0.18754E-01  0.25683E-01  0.34979E-01  0.45852E-01  0.56608E-01
  0.64752E-01  0.67816E-01  0.36269E-01  0.34958E-01  0.31390E-01  0.26517E-01
  0.21449E-01  0.17026E-01  0.13611E-01  0.11213E-01  0.97105E-02  0.88488E-02
  0.83663E-02  0.81403E-02  0.80562E-02  0.80793E-02  0.81982E-02  0.83489E-02
  0.85144E-02  0.86361E-02  0.87214E-02  0.87660E-02  0.88056E-02  0.88333E-02
  0.88506E-02  0.88506E-02  0.88333E-02  0.88056E-02  0.87660E-02  0.87214E-02
  0.86361E-02  0.85144E-02  0.83489E-02  0.81982E-02  0.80793E-02  0.80562E-02
  0.81403E-02  0.83663E-02  0.88488E-02  0.97105E-02  0.11213E-01  0.13611E-01
  0.17026E-01  0.21449E-01  0.26517E-01  0.31390E-01  0.34958E-01  0.36269E-01
  0.20813E-01  0.20261E-01  0.18739E-01  0.16628E-01  0.14383E-01  0.12340E-01
  0.10710E-01  0.95796E-02  0.88488E-02  0.83950E-02  0.81600E-02  0.80517E-02
  0.80480E-02  0.81412E-02  0.82848E-02  0.84578E-02  0.86015E-02  0.86998E-02
  0.87492E-02  0.87753E-02  0.88176E-02  0.88582E-02  0.88929E-02  0.88929E-02
  0.88582E-02  0.88176E-02  0.87753E-02  0.87492E-02  0.86998E-02  0.86015E-02
  0.84578E-02  0.82848E-02  0.81412E-02  0.80480E-02  0.80517E-02  0.81600E-02
  0.83950E-02  0.88488E-02  0.95796E-02  0.10710E-01  0.12340E-01  0.14383E-01
  0.16628E-01  0.18739E-01  0.20261E-01  0.20813E-01  0.13571E-01  0.13342E-01
  0.12704E-01  0.11807E-01  0.10837E-01  0.99495E-02  0.92386E-02  0.87196E-02
  0.83663E-02  0.81600E-02  0.80563E-02  0.80261E-02  0.80932E-02  0.82261E-02
  0.83960E-02  0.85686E-02  0.86824E-02  0.87521E-02  0.87737E-02  0.87914E-02
  0.88270E-02  0.88780E-02  0.89173E-02  0.89173E-02  0.88780E-02  0.88270E-02
  0.87914E-02  0.87737E-02  0.87521E-02  0.86824E-02  0.85686E-02  0.83960E-02
  0.82261E-02  0.80932E-02  0.80261E-02  0.80563E-02  0.81600E-02  0.83663E-02
  0.87196E-02  0.92386E-02  0.99495E-02  0.10837E-01  0.11807E-01  0.12704E-01
  0.13342E-01  0.13571E-01  0.10284E-01  0.10189E-01  0.99427E-02  0.95977E-02
  0.92070E-02  0.88368E-02  0.85203E-02  0.82863E-02  0.81403E-02  0.80517E-02
  0.80261E-02  0.80819E-02  0.81868E-02  0.83446E-02  0.85204E-02  0.86621E-02
  0.87519E-02  0.87801E-02  0.87832E-02  0.87949E-02  0.88276E-02  0.88835E-02
  0.89214E-02  0.89214E-02  0.88835E-02  0.88276E-02  0.87949E-02  0.87832E-02
  0.87801E-02  0.87519E-02  0.86621E-02  0.85204E-02  0.83446E-02  0.81868E-02
  0.80819E-02  0.80261E-02  0.80517E-02  0.81403E-02  0.82863E-02  0.85203E-02
  0.88368E-02  0.92070E-02  0.95977E-02  0.99427E-02  0.10189E-01  0.10284E-01
  0.89163E-02  0.88776E-02  0.87833E-02  0.86457E-02  0.84805E-02  0.83295E-02
  0.82107E-02  0.81181E-02  0.80562E-02  0.80480E-02  0.80932E-02  0.81868E-02
  0.83188E-02  0.84841E-02  0.86296E-02  0.87342E-02  0.87904E-02  0.87901E-02
  0.87879E-02  0.87930E-02  0.88326E-02  0.88808E-02  0.89186E-02  0.89186E-02
  0.88808E-02  0.88326E-02  0.87930E-02  0.87879E-02  0.87901E-02  0.87904E-02
  0.87342E-02  0.86296E-02  0.84841E-02  0.83188E-02  0.81868E-02  0.80932E-02
  0.80480E-02  0.80562E-02  0.81181E-02  0.82107E-02  0.83295E-02  0.84805E-02
  0.86457E-02  0.87833E-02  0.88776E-02  0.89163E-02  0.83564E-02  0.83435E-02
  0.83088E-02  0.82579E-02  0.82034E-02  0.81462E-02  0.80993E-02  0.80686E-02
  0.80793E-02  0.81412E-02  0.82261E-02  0.83446E-02  0.84841E-02  0.86080E-02
  0.87129E-02  0.87744E-02  0.87893E-02  0.87873E-02  0.87875E-02  0.87975E-02
  0.88380E-02  0.88737E-02  0.89061E-02  0.89061E-02  0.88737E-02  0.88380E-02
  0.87975E-02  0.87875E-02  0.87873E-02  0.87893E-02  0.87744E-02  0.87129E-02
  0.86080E-02  0.84841E-02  0.83446E-02  0.82261E-02  0.81412E-02  0.80793E-02
  0.80686E-02  0.80993E-02  0.81462E-02  0.82034E-02  0.82579E-02  0.83088E-02
  0.83435E-02  0.83564E-02  0.81652E-02  0.81613E-02  0.81474E-02  0.81200E-02
  0.81005E-02  0.80878E-02  0.80979E-02  0.81329E-02  0.81982E-02  0.82848E-02
  0.83960E-02  0.85204E-02  0.86296E-02  0.87129E-02  0.87654E-02  0.87800E-02
  0.87861E-02  0.87853E-02  0.87904E-02  0.88149E-02  0.88356E-02  0.88621E-02
  0.88783E-02  0.88783E-02  0.88621E-02  0.88356E-02  0.88149E-02  0.87904E-02
  0.87853E-02  0.87861E-02  0.87800E-02  0.87654E-02  0.87129E-02  0.86296E-02
  0.85204E-02  0.83960E-02  0.82848E-02  0.81982E-02  0.81329E-02  0.80979E-02
  0.80878E-02  0.81005E-02  0.81200E-02  0.81474E-02  0.81613E-02  0.81652E-02
  0.81313E-02  0.81251E-02  0.81202E-02  0.81136E-02  0.81287E-02  0.81523E-02
  0.81902E-02  0.82540E-02  0.83489E-02  0.84578E-02  0.85686E-02  0.86621E-02
  0.87342E-02  0.87744E-02  0.87800E-02  0.87800E-02  0.87848E-02  0.87894E-02
  0.88075E-02  0.88299E-02  0.88289E-02  0.88386E-02  0.88305E-02  0.88305E-02
  0.88386E-02  0.88289E-02  0.88299E-02  0.88075E-02  0.87894E-02  0.87848E-02
  0.87800E-02  0.87800E-02  0.87744E-02  0.87342E-02  0.86621E-02  0.85686E-02
  0.84578E-02  0.83489E-02  0.82540E-02  0.81902E-02  0.81523E-02  0.81287E-02
  0.81136E-02  0.81202E-02  0.81251E-02  0.81313E-02  0.82256E-02  0.82192E-02
  0.82183E-02  0.82178E-02  0.82400E-02  0.82757E-02  0.83371E-02  0.84243E-02
  0.85144E-02  0.86015E-02  0.86824E-02  0.87519E-02  0.87904E-02  0.87893E-02
  0.87861E-02  0.87848E-02  0.87852E-02  0.88076E-02  0.88201E-02  0.88259E-02
  0.88146E-02  0.87951E-02  0.87785E-02  0.87785E-02  0.87951E-02  0.88146E-02
  0.88259E-02  0.88201E-02  0.88076E-02  0.87852E-02  0.87848E-02  0.87861E-02
  0.87893E-02  0.87904E-02  0.87519E-02  0.86824E-02  0.86015E-02  0.85144E-02
  0.84243E-02  0.83371E-02  0.82757E-02  0.82400E-02  0.82178E-02  0.82183E-02
  0.82192E-02  0.82256E-02  0.84003E-02  0.83949E-02  0.83921E-02  0.83931E-02
  0.84119E-02  0.84473E-02  0.85043E-02  0.85726E-02  0.86361E-02  0.86998E-02
  0.87521E-02  0.87801E-02  0.87901E-02  0.87873E-02  0.87853E-02  0.87894E-02
  0.88076E-02  0.88316E-02  0.88306E-02  0.88221E-02  0.87891E-02  0.87493E-02
  0.87301E-02  0.87301E-02  0.87493E-02  0.87891E-02  0.88221E-02  0.88306E-02
  0.88316E-02  0.88076E-02  0.87894E-02  0.87853E-02  0.87873E-02  0.87901E-02
  0.87801E-02  0.87521E-02  0.86998E-02  0.86361E-02  0.85726E-02  0.85043E-02
  0.84473E-02  0.84119E-02  0.83931E-02  0.83921E-02  0.83949E-02  0.84003E-02
  0.86088E-02  0.86014E-02  0.85869E-02  0.85786E-02  0.85806E-02  0.86004E-02
  0.86378E-02  0.86822E-02  0.87214E-02  0.87492E-02  0.87737E-02  0.87832E-02
  0.87879E-02  0.87875E-02  0.87904E-02  0.88075E-02  0.88201E-02  0.88306E-02
  0.88277E-02  0.88006E-02  0.87572E-02  0.87244E-02  0.86942E-02  0.86942E-02
  0.87244E-02  0.87572E-02  0.88006E-02  0.88277E-02  0.88306E-02  0.88201E-02
  0.88075E-02  0.87904E-02  0.87875E-02  0.87879E-02  0.87832E-02  0.87737E-02
  0.87492E-02  0.87214E-02  0.86822E-02  0.86378E-02  0.86004E-02  0.85806E-02
  0.85786E-02  0.85869E-02  0.86014E-02  0.86088E-02  0.87572E-02  0.87483E-02
  0.87275E-02  0.87081E-02  0.86956E-02  0.87024E-02  0.87230E-02  0.87469E-02
  0.87660E-02  0.87753E-02  0.87914E-02  0.87949E-02  0.87930E-02  0.87975E-02
  0.88149E-02  0.88299E-02  0.88259E-02  0.88221E-02  0.88006E-02  0.87716E-02
  0.87397E-02  0.87074E-02  0.86904E-02  0.86904E-02  0.87074E-02  0.87397E-02
  0.87716E-02  0.88006E-02  0.88221E-02  0.88259E-02  0.88299E-02  0.88149E-02
  0.87975E-02  0.87930E-02  0.87949E-02  0.87914E-02  0.87753E-02  0.87660E-02
  0.87469E-02  0.87230E-02  0.87024E-02  0.86956E-02  0.87081E-02  0.87275E-02
  0.87483E-02  0.87572E-02  0.88205E-02  0.88057E-02  0.87797E-02  0.87518E-02
  0.87325E-02  0.87363E-02  0.87557E-02  0.87820E-02  0.88056E-02  0.88176E-02
  0.88270E-02  0.88276E-02  0.88326E-02  0.88380E-02  0.88356E-02  0.88289E-02
  0.88146E-02  0.87891E-02  0.87572E-02  0.87397E-02  0.87233E-02  0.87087E-02
  0.87089E-02  0.87089E-02  0.87087E-02  0.87233E-02  0.87397E-02  0.87572E-02
  0.87891E-02  0.88146E-02  0.88289E-02  0.88356E-02  0.88380E-02  0.88326E-02
  0.88276E-02  0.88270E-02  0.88176E-02  0.88056E-02  0.87820E-02  0.87557E-02
  0.87363E-02  0.87325E-02  0.87518E-02  0.87797E-02  0.88057E-02  0.88205E-02
  0.88045E-02  0.87861E-02  0.87610E-02  0.87348E-02  0.87156E-02  0.87262E-02
  0.87590E-02  0.87970E-02  0.88333E-02  0.88582E-02  0.88780E-02  0.88835E-02
  0.88808E-02  0.88737E-02  0.88621E-02  0.88386E-02  0.87951E-02  0.87493E-02
  0.87244E-02  0.87074E-02  0.87087E-02  0.87305E-02  0.87328E-02  0.87328E-02
  0.87305E-02  0.87087E-02  0.87074E-02  0.87244E-02  0.87493E-02  0.87951E-02
  0.88386E-02  0.88621E-02  0.88737E-02  0.88808E-02  0.88835E-02  0.88780E-02
  0.88582E-02  0.88333E-02  0.87970E-02  0.87590E-02  0.87262E-02  0.87156E-02
  0.87348E-02  0.87610E-02  0.87861E-02  0.88045E-02  0.87741E-02  0.87535E-02
  0.87280E-02  0.87064E-02  0.86899E-02  0.87083E-02  0.87534E-02  0.87980E-02
  0.88506E-02  0.88929E-02  0.89173E-02  0.89214E-02  0.89186E-02  0.89061E-02
  0.88783E-02  0.88305E-02  0.87785E-02  0.87301E-02  0.86942E-02  0.86904E-02
  0.87089E-02  0.87328E-02  0.87565E-02  0.87565E-02  0.87328E-02  0.87089E-02
  0.86904E-02  0.86942E-02  0.87301E-02  0.87785E-02  0.88305E-02  0.88783E-02
  0.89061E-02  0.89186E-02  0.89214E-02  0.89173E-02  0.88929E-02  0.88506E-02
  0.87980E-02  0.87534E-02  0.87083E-02  0.86899E-02  0.87064E-02  0.87280E-02
  0.87535E-02  0.87741E-02  0.87741E-02  0.87535E-02  0.87280E-02  0.87064E-02
  0.86899E-02  0.87083E-02  0.87534E-02  0.87980E-02  0.88506E-02  0.88929E-02
  0.89173E-02  0.89214E-02  0.89186E-02  0.89061E-02  0.88783E-02  0.88305E-02
  0.87785E-02  0.87301E-02  0.86942E-02  0.86904E-02  0.87089E-02  0.87328E-02
  0.87565E-02  0.87565E-02  0.87328E-02  0.87089E-02  0.86904E-02  0.86942E-02
  0.87301E-02  0.87785E-02  0.88305E-02  0.88783E-02  0.89061E-02  0.89186E-02
  0.89214E-02  0.89173E-02  0.88929E-02  0.88506E-02  0.87980E-02  0.87534E-02
  0.87083E-02  0.86899E-02  0.87064E-02  0.87280E-02  0.87535E-02  0.87741E-02
  0.88045E-02  0.87861E-02  0.87610E-02  0.87348E-02  0.87156E-02  0.87262E-02
  0.87590E-02  0.87970E-02  0.88333E-02  0.88582E-02  0.88780E-02  0.88835E-02
  0.88808E-02  0.88737E-02  0.88621E-02  0.88386E-02  0.87951E-02  0.87493E-02
  0.87244E-02  0.87074E-02  0.87087E-02  0.87305E-02  0.87328E-02  0.87328E-02
  0.87305E-02  0.87087E-02  0.87074E-02  0.87244E-02  0.87493E-02  0.87951E-02
  0.88386E-02  0.88621E-02  0.88737E-02  0.88808E-02  0.88835E-02  0.88780E-02
  0.88582E-02  0.88333E-02  0.87970E-02  0.87590E-02  0.87262E-02  0.87156E-02
  0.87348E-02  0.87610E-02  0.87861E-02  0.88045E-02  0.88205E-02  0.88057E-02
  0.87797E-02  0.87518E-02  0.87325E-02  0.87363E-02  0.87557E-02  0.87820E-02
  0.88056E-02  0.88176E-02  0.88270E-02  0.88276E-02  0.88326E-02  0.88380E-02
  0.88356E-02  0.88289E-02  0.88146E-02  0.87891E-02  0.87572E-02  0.87397E-02
  0.87233E-02  0.87087E-02  0.87089E-02  0.87089E-02  0.87087E-02  0.87233E-02
  0.87397E-02  0.87572E-02  0.87891E-02  0.88146E-02  0.88289E-02  0.88356E-02
  0.88380E-02  0.88326E-02  0.88276E-02  0.88270E-02  0.88176E-02  0.88056E-02
  0.87820E-02  0.87557E-02  0.87363E-02  0.87325E-02  0.87518E-02  0.87797E-02
  0.88057E-02  0.88205E-02  0.87572E-02  0.87483E-02  0.87275E-02  0.87081E-02
  0.86956E-02  0.87024E-02  0.87230E-02  0.87469E-02  0.87660E-02  0.87753E-02
  0.87914E-02  0.87949E-02  0.87930E-02  0.87975E-02  0.88149E-02  0.88299E-02
  0.88259E-02  0.88221E-02  0.88006E-02  0.87716E-02  0.87397E-02  0.87074E-02
  0.86904E-02  0.86904E-02  0.87074E-02  0.87397E-02  0.87716E-02  0.88006E-02
  0.88221E-02  0.88259E-02  0.88299E-02  0.88149E-02  0.87975E-02  0.87930E-02
  0.87949E-02  0.87914E-02  0.87753E-02  0.87660E-02  0.87469E-02  0.87230E-02
  0.87024E-02  0.86956E-02  0.87081E-02  0.87275E-02  0.87483E-02  0.87572E-02
  0.86088E-02  0.86014E-02  0.85869E-02  0.85786E-02  0.85806E-02  0.86004E-02
  0.86378E-02  0.86822E-02  0.87214E-02  0.87492E-02  0.87737E-02  0.87832E-02
  0.87879E-02  0.87875E-02  0.87904E-02  0.88075E-02  0.88201E-02  0.88306E-02
  0.88277E-02  0.88006E-02  0.87572E-02  0.87244E-02  0.86942E-02  0.86942E-02
  0.87244E-02  0.87572E-02  0.88006E-02  0.88277E-02  0.88306E-02  0.88201E-02
  0.88075E-02  0.87904E-02  0.87875E-02  0.87879E-02  0.87832E-02  0.87737E-02
  0.87492E-02  0.87214E-02  0.86822E-02  0.86378E-02  0.86004E-02  0.85806E-02
  0.85786E-02  0.85869E-02  0.86014E-02  0.86088E-02  0.84003E-02  0.83949E-02
  0.83921E-02  0.83931E-02  0.84119E-02  0.84473E-02  0.85043E-02  0.85726E-02
  0.86361E-02  0.86998E-02  0.87521E-02  0.87801E-02  0.87901E-02  0.87873E-02
  0.87853E-02  0.87894E-02  0.88076E-02  0.88316E-02  0.88306E-02  0.88221E-02
  0.87891E-02  0.87493E-02  0.87301E-02  0.87301E-02  0.87493E-02  0.87891E-02
  0.88221E-02  0.88306E-02  0.88316E-02  0.88076E-02  0.87894E-02  0.87853E-02
  0.87873E-02  0.87901E-02  0.87801E-02  0.87521E-02  0.86998E-02  0.86361E-02
  0.85726E-02  0.85043E-02  0.84473E-02  0.84119E-02  0.83931E-02  0.83921E-02
  0.83949E-02  0.84003E-02  0.82256E-02  0.82192E-02  0.82183E-02  0.82178E-02
  0.82400E-02  0.82757E-02  0.83371E-02  0.84243E-02  0.85144E-02  0.86015E-02
  0.86824E-02  0.87519E-02  0.87904E-02  0.87893E-02  0.87861E-02  0.87848E-02
  0.87852E-02  0.88076E-02  0.88201E-02  0.88259E-02  0.88146E-02  0.87951E-02
  0.87785E-02  0.87785E-02  0.87951E-02  0.88146E-02  0.88259E-02  0.88201E-02
  0.88076E-02  0.87852E-02  0.87848E-02  0.87861E-02  0.87893E-02  0.87904E-02
  0.87519E-02  0.86824E-02  0.86015E-02  0.85144E-02  0.84243E-02  0.83371E-02
  0.82757E-02  0.82400E-02  0.82178E-02  0.82183E-02  0.82192E-02  0.82256E-02
  0.81313E-02  0.81251E-02  0.81202E-02  0.81136E-02  0.81287E-02  0.81523E-02
  0.81902E-02  0.82540E-02  0.83489E-02  0.84578E-02  0.85686E-02  0.86621E-02
  0.87342E-02  0.87744E-02  0.87800E-02  0.87800E-02  0.87848E-02  0.87894E-02
  0.88075E-02  0.88299E-02  0.88289E-02  0.88386E-02  0.88305E-02  0.88305E-02
  0.88386E-02  0.88289E-02  0.88299E-02  0.88075E-02  0.87894E-02  0.87848E-02
  0.87800E-02  0.87800E-02  0.87744E-02  0.87342E-02  0.86621E-02  0.85686E-02
  0.84578E-02  0.83489E-02  0.82540E-02  0.81902E-02  0.81523E-02  0.81287E-02
  0.81136E-02  0.81202E-02  0.81251E-02  0.81313E-02  0.81652E-02  0.81613E-02
  0.81474E-02  0.81200E-02  0.81005E-02  0.80878E-02  0.80979E-02  0.81329E-02
  0.81982E-02  0.82848E-02  0.83960E-02  0.85204E-02  0.86296E-02  0.87129E-02
  0.87654E-02  0.87800E-02  0.87861E-02  0.87853E-02  0.87904E-02  0.88149E-02
  0.88356E-02  0.88621E-02  0.88783E-02  0.88783E-02  0.88621E-02  0.88356E-02
  0.88149E-02  0.87904E-02  0.87853E-02  0.87861E-02  0.87800E-02  0.87654E-02
  0.87129E-02  0.86296E-02  0.85204E-02  0.83960E-02  0.82848E-02  0.81982E-02
  0.81329E-02  0.80979E-02  0.80878E-02  0.81005E-02  0.81200E-02  0.81474E-02
  0.81613E-02  0.81652E-02  0.83564E-02  0.83435E-02  0.83088E-02  0.82579E-02
  0.82034E-02  0.81462E-02  0.80993E-02  0.80686E-02  0.80793E-02  0.81412E-02
  0.82261E-02  0.83446E-02  0.84841E-02  0.86080E-02  0.87129E-02  0.87744E-02
  0.87893E-02  0.87873E-02  0.87875E-02  0.87975E-02  0.88380E-02  0.88737E-02
  0.89061E-02  0.89061E-02  0.88737E-02  0.88380E-02  0.87975E-02  0.87875E-02
  0.87873E-02  0.87893E-02  0.87744E-02  0.87129E-02  0.86080E-02  0.84841E-02
  0.83446E-02  0.82261E-02  0.81412E-02  0.80793E-02  0.80686E-02  0.80993E-02
  0.81462E-02  0.82034E-02  0.82579E-02  0.83088E-02  0.83435E-02  0.83564E-02
  0.89163E-02  0.88776E-02  0.87833E-02  0.86457E-02  0.84805E-02  0.83295E-02
  0.82107E-02  0.81181E-02  0.80562E-02  0.80480E-02  0.80932E-02  0.81868E-02
  0.83188E-02  0.84841E-02  0.86296E-02  0.87342E-02  0.87904E-02  0.87901E-02
  0.87879E-02  0.87930E-02  0.88326E-02  0.88808E-02  0.89186E-02  0.89186E-02
  0.88808E-02  0.88326E-02  0.87930E-02  0.87879E-02  0.87901E-02  0.87904E-02
  0.87342E-02  0.86296E-02  0.84841E-02  0.83188E-02  0.81868E-02  0.80932E-02
  0.80480E-02  0.80562E-02  0.81181E-02  0.82107E-02  0.83295E-02  0.84805E-02
  0.86457E-02  0.87833E-02  0.88776E-02  0.89163E-02  0.10284E-01  0.10189E-01
  0.99427E-02  0.95977E-02  0.92070E-02  0.88368E-02  0.85203E-02  0.82863E-02
  0.81403E-02  0.80517E-02  0.80261E-02  0.80819E-02  0.81868E-02  0.83446E-02
  0.85204E-02  0.86621E-02  0.87519E-02  0.87801E-02  0.87832E-02  0.87949E-02
  0.88276E-02  0.88835E-02  0.89214E-02  0.89214E-02  0.88835E-02  0.88276E-02
  0.87949E-02  0.87832E-02  0.87801E-02  0.87519E-02  0.86621E-02  0.85204E-02
  0.83446E-02  0.81868E-02  0.80819E-02  0.80261E-02  0.80517E-02  0.81403E-02
  0.82863E-02  0.85203E-02  0.88368E-02  0.92070E-02  0.95977E-02  0.99427E-02
  0.10189E-01  0.10284E-01  0.13571E-01  0.13342E-01  0.12704E-01  0.11807E-01
  0.10837E-01  0.99495E-02  0.92386E-02  0.87196E-02  0.83663E-02  0.81600E-02
  0.80563E-02  0.80261E-02  0.80932E-02  0.82261E-02  0.83960E-02  0.85686E-02
  0.86824E-02  0.87521E-02  0.87737E-02  0.87914E-02  0.88270E-02  0.88780E-02
  0.89173E-02  0.89173E-02  0.88780E-02  0.88270E-02  0.87914E-02  0.87737E-02
  0.87521E-02  0.86824E-02  0.85686E-02  0.83960E-02  0.82261E-02  0.80932E-02
  0.80261E-02  0.80563E-02  0.81600E-02  0.83663E-02  0.87196E-02  0.92386E-02
  0.99495E-02  0.10837E-01  0.11807E-01  0.12704E-01  0.13342E-01  0.13571E-01
  0.20813E-01  0.20261E-01  0.18739E-01  0.16628E-01  0.14383E-01  0.12340E-01
  0.10710E-01  0.95796E-02  0.88488E-02  0.83950E-02  0.81600E-02  0.80517E-02
  0.80480E-02  0.81412E-02  0.82848E-02  0.84578E-02  0.86015E-02  0.86998E-02
  0.87492E-02  0.87753E-02  0.88176E-02  0.88582E-02  0.88929E-02  0.88929E-02
  0.88582E-02  0.88176E-02  0.87753E-02  0.87492E-02  0.86998E-02  0.86015E-02
  0.84578E-02  0.82848E-02  0.81412E-02  0.80480E-02  0.80517E-02  0.81600E-02
  0.83950E-02  0.88488E-02  0.95796E-02  0.10710E-01  0.12340E-01  0.14383E-01
  0.16628E-01  0.18739E-01  0.20261E-01  0.20813E-01  0.36269E-01  0.34958E-01
  0.31390E-01  0.26517E-01  0.21449E-01  0.17026E-01  0.13611E-01  0.11213E-01
  0.97105E-02  0.88488E-02  0.83663E-02  0.81403E-02  0.80562E-02  0.80793E-02
  0.81982E-02  0.83489E-02  0.85144E-02  0.86361E-02  0.87214E-02  0.87660E-02
  0.88056E-02  0.88333E-02  0.88506E-02  0.88506E-02  0.88333E-02  0.88056E-02
  0.87660E-02  0.87214E-02  0.86361E-02  0.85144E-02  0.83489E-02  0.81982E-02
  0.80793E-02  0.80562E-02  0.81403E-02  0.83663E-02  0.88488E-02  0.97105E-02
  0.11213E-01  0.13611E-01  0.17026E-01  0.21449E-01  0.26517E-01  0.31390E-01
  0.34958E-01  0.36269E-01  0.67816E-01  0.64752E-01  0.56608E-01  0.45852E-01
  0.34979E-01  0.25683E-01  0.18754E-01  0.14112E-01  0.11213E-01  0.95796E-02
  0.87196E-02  0.82863E-02  0.81181E-02  0.80686E-02  0.81329E-02  0.82540E-02
  0.84243E-02  0.85726E-02  0.86822E-02  0.87469E-02  0.87820E-02  0.87970E-02
  0.87980E-02  0.87980E-02  0.87970E-02  0.87820E-02  0.87469E-02  0.86822E-02
  0.85726E-02  0.84243E-02  0.82540E-02  0.81329E-02  0.80686E-02  0.81181E-02
  0.82863E-02  0.87196E-02  0.95796E-02  0.11213E-01  0.14112E-01  0.18754E-01
  0.25683E-01  0.34979E-01  0.45852E-01  0.56608E-01  0.64752E-01  0.67816E-01
  0.13319E+00  0.12579E+00  0.10656E+00  0.82242E-01  0.59162E-01  0.40690E-01
  0.27406E-01  0.18754E-01  0.13611E-01  0.10710E-01  0.92386E-02  0.85203E-02
  0.82107E-02  0.80993E-02  0.80979E-02  0.81902E-02  0.83371E-02  0.85043E-02
  0.86378E-02  0.87230E-02  0.87557E-02  0.87590E-02  0.87534E-02  0.87534E-02
  0.87590E-02  0.87557E-02  0.87230E-02  0.86378E-02  0.85043E-02  0.83371E-02
  0.81902E-02  0.80979E-02  0.80993E-02  0.82107E-02  0.85203E-02  0.92386E-02
  0.10710E-01  0.13611E-01  0.18754E-01  0.27406E-01  0.40690E-01  0.59162E-01
  0.82242E-01  0.10656E+00  0.12579E+00  0.13319E+00  0.27342E+00  0.25375E+00
  0.20558E+00  0.14981E+00  0.10100E+00  0.64752E-01  0.40690E-01  0.25683E-01
  0.17026E-01  0.12340E-01  0.99495E-02  0.88368E-02  0.83295E-02  0.81462E-02
  0.80878E-02  0.81523E-02  0.82757E-02  0.84473E-02  0.86004E-02  0.87024E-02
  0.87363E-02  0.87262E-02  0.87083E-02  0.87083E-02  0.87262E-02  0.87363E-02
  0.87024E-02  0.86004E-02  0.84473E-02  0.82757E-02  0.81523E-02  0.80878E-02
  0.81462E-02  0.83295E-02  0.88368E-02  0.99495E-02  0.12340E-01  0.17026E-01
  0.25683E-01  0.40690E-01  0.64752E-01  0.10100E+00  0.14981E+00  0.20558E+00
  0.25375E+00  0.27342E+00  0.61383E+00  0.55343E+00  0.41438E+00  0.27341E+00
  0.16929E+00  0.10100E+00  0.59162E-01  0.34979E-01  0.21449E-01  0.14383E-01
  0.10837E-01  0.92070E-02  0.84805E-02  0.82034E-02  0.81005E-02  0.81287E-02
  0.82400E-02  0.84119E-02  0.85806E-02  0.86956E-02  0.87325E-02  0.87156E-02
  0.86899E-02  0.86899E-02  0.87156E-02  0.87325E-02  0.86956E-02  0.85806E-02
  0.84119E-02  0.82400E-02  0.81287E-02  0.81005E-02  0.82034E-02  0.84805E-02
  0.92070E-02  0.10837E-01  0.14383E-01  0.21449E-01  0.34979E-01  0.59162E-01
  0.10100E+00  0.16929E+00  0.27341E+00  0.41438E+00  0.55343E+00  0.61383E+00
  0.13880E+01  0.12250E+01  0.85515E+00  0.50075E+00  0.27341E+00  0.14981E+00
  0.82242E-01  0.45852E-01  0.26517E-01  0.16628E-01  0.11807E-01  0.95977E-02
  0.86457E-02  0.82579E-02  0.81200E-02  0.81136E-02  0.82178E-02  0.83931E-02
  0.85786E-02  0.87081E-02  0.87518E-02  0.87348E-02  0.87064E-02  0.87064E-02
  0.87348E-02  0.87518E-02  0.87081E-02  0.85786E-02  0.83931E-02  0.82178E-02
  0.81136E-02  0.81200E-02  0.82579E-02  0.86457E-02  0.95977E-02  0.11807E-01
  0.16628E-01  0.26517E-01  0.45852E-01  0.82242E-01  0.14981E+00  0.27341E+00
  0.50075E+00  0.85515E+00  0.12250E+01  0.13880E+01  0.26602E+01  0.23297E+01
  0.15760E+01  0.85515E+00  0.41438E+00  0.20558E+00  0.10656E+00  0.56608E-01
  0.31390E-01  0.18739E-01  0.12704E-01  0.99427E-02  0.87833E-02  0.83088E-02
  0.81474E-02  0.81202E-02  0.82183E-02  0.83921E-02  0.85869E-02  0.87275E-02
  0.87797E-02  0.87610E-02  0.87280E-02  0.87280E-02  0.87610E-02  0.87797E-02
  0.87275E-02  0.85869E-02  0.83921E-02  0.82183E-02  0.81202E-02  0.81474E-02
  0.83088E-02  0.87833E-02  0.99427E-02  0.12704E-01  0.18739E-01  0.31390E-01
  0.56608E-01  0.10656E+00  0.20558E+00  0.41438E+00  0.85515E+00  0.15760E+01
  0.23297E+01  0.26602E+01  0.39753E+01  0.34756E+01  0.23297E+01  0.12250E+01
  0.55343E+00  0.25375E+00  0.12579E+00  0.64752E-01  0.34958E-01  0.20261E-01
  0.13342E-01  0.10189E-01  0.88776E-02  0.83435E-02  0.81613E-02  0.81251E-02
  0.82192E-02  0.83949E-02  0.86014E-02  0.87483E-02  0.88057E-02  0.87861E-02
  0.87535E-02  0.87535E-02  0.87861E-02  0.88057E-02  0.87483E-02  0.86014E-02
  0.83949E-02  0.82192E-02  0.81251E-02  0.81613E-02  0.83435E-02  0.88776E-02
  0.10189E-01  0.13342E-01  0.20261E-01  0.34958E-01  0.64752E-01  0.12579E+00
  0.25375E+00  0.55343E+00  0.12250E+01  0.23297E+01  0.34756E+01  0.39753E+01
  0.45475E+01  0.39753E+01  0.26602E+01  0.13880E+01  0.61383E+00  0.27342E+00
  0.13319E+00  0.67816E-01  0.36269E-01  0.20813E-01  0.13571E-01  0.10284E-01
  0.89163E-02  0.83564E-02  0.81652E-02  0.81313E-02  0.82256E-02  0.84003E-02
  0.86088E-02  0.87572E-02  0.88205E-02  0.88045E-02  0.87741E-02  0.87741E-02
  0.88045E-02  0.88205E-02  0.87572E-02  0.86088E-02  0.84003E-02  0.82256E-02
  0.81313E-02  0.81652E-02  0.83564E-02  0.89163E-02  0.10284E-01  0.13571E-01
  0.20813E-01  0.36269E-01  0.67816E-01  0.13319E+00  0.27342E+00  0.61383E+00
  0.13880E+01  0.26602E+01  0.39753E+01  0.45475E+01  0.39753E+01  0.34756E+01
  0.23297E+01  0.12250E+01  0.55343E+00  0.25375E+00  0.12579E+00  0.64752E-01
  0.34958E-01  0.20261E-01  0.13342E-01  0.10189E-01  0.88776E-02  0.83435E-02
  0.81613E-02  0.81251E-02  0.82192E-02  0.83949E-02  0.86014E-02  0.87483E-02
  0.88057E-02  0.87861E-02  0.87535E-02  0.87535E-02  0.87861E-02  0.88057E-02
  0.87483E-02  0.86014E-02  0.83949E-02  0.82192E-02  0.81251E-02  0.81613E-02
  0.83435E-02  0.88776E-02  0.10189E-01  0.13342E-01  0.20261E-01  0.34958E-01
  0.64752E-01  0.12579E+00  0.25375E+00  0.55343E+00  0.12250E+01  0.23297E+01
  0.34756E+01  0.39753E+01  0.34756E+01  0.30399E+01  0.20423E+01  0.10837E+01
  0.50076E+00  0.23606E+00  0.11891E+00  0.61873E-01  0.33704E-01  0.19725E-01
  0.13121E-01  0.10105E-01  0.88457E-02  0.83316E-02  0.81543E-02  0.81204E-02
  0.82163E-02  0.83934E-02  0.85991E-02  0.87440E-02  0.87984E-02  0.87794E-02
  0.87491E-02  0.87491E-02  0.87794E-02  0.87984E-02  0.87440E-02  0.85991E-02
  0.83934E-02  0.82163E-02  0.81204E-02  0.81543E-02  0.83316E-02  0.88457E-02
  0.10105E-01  0.13121E-01  0.19725E-01  0.33704E-01  0.61873E-01  0.11891E+00
  0.23606E+00  0.50076E+00  0.10837E+01  0.20423E+01  0.30399E+01  0.34756E+01
  0.23297E+01  0.20423E+01  0.13880E+01  0.76311E+00  0.37893E+00  0.19239E+00
  0.10101E+00  0.54203E-01  0.30312E-01  0.18270E-01  0.12507E-01  0.98669E-02
  0.87525E-02  0.82971E-02  0.81401E-02  0.81202E-02  0.82201E-02  0.83948E-02
  0.85902E-02  0.87273E-02  0.87772E-02  0.87590E-02  0.87289E-02  0.87289E-02
  0.87590E-02  0.87772E-02  0.87273E-02  0.85902E-02  0.83948E-02  0.82201E-02